BEGIN_CFG
 Size
    17
 Supercell
         4.197965      0.000000      0.000000
         0.000000      5.797348      0.000000
         0.000000      0.000000     23.189392
 AtomData:  id type       cartes_x      cartes_y      cartes_z
             1    2       0.000000      0.000000     18.167376
             2    1       0.000000      0.000000     10.870028
             3    1       0.000000      0.000000     16.667376
             4    0       0.000000      2.898674      7.971354
             5    0       0.000000      2.898674     10.870028
             6    0       0.000000      0.000000      7.971354
             7    0       2.098983      1.436818      6.509497
             8    0       2.098983      4.360530      9.433210
             9    0       2.098983      1.436818      9.433210
            10    0       2.098983      4.360530      6.509497
            11    0       0.000000      2.898674     13.768702
            12    0       0.000000      2.898674     16.667376
            13    0       0.000000      0.000000     13.768702
            14    0       2.098983      1.436818     12.306845
            15    0       2.098983      4.360530     15.230558
            16    0       2.098983      1.436818     15.230558
            17    0       2.098983      4.360530     12.306845
Feature	Structure Pt133Au116_train_0.cif
END_CFG

BEGIN_CFG
 Size
    17
 Supercell
         4.197965      0.000000      0.000000
         0.000000      5.797348      0.000000
         0.000000      0.000000     23.189392
 AtomData:  id type       cartes_x      cartes_y      cartes_z
             1    2       0.000000      2.898674     18.167376
             2    1       0.000000      0.000000     10.870028
             3    1       0.000000      0.000000     16.667376
             4    0       0.000000      2.898674      7.971354
             5    0       0.000000      2.898674     10.870028
             6    0       0.000000      0.000000      7.971354
             7    0       2.098983      1.436818      6.509497
             8    0       2.098983      4.360530      9.433210
             9    0       2.098983      1.436818      9.433210
            10    0       2.098983      4.360530      6.509497
            11    0       0.000000      2.898674     13.768702
            12    0       0.000000      2.898674     16.667376
            13    0       0.000000      0.000000     13.768702
            14    0       2.098983      1.436818     12.306845
            15    0       2.098983      4.360530     15.230558
            16    0       2.098983      1.436818     15.230558
            17    0       2.098983      4.360530     12.306845
Feature	Structure Pt133Au116_train_1.cif
END_CFG

BEGIN_CFG
 Size
    17
 Supercell
         4.197965      0.000000      0.000000
         0.000000      5.797348      0.000000
         0.000000      0.000000     23.189392
 AtomData:  id type       cartes_x      cartes_y      cartes_z
             1    2       0.000000      0.000000     18.167376
             2    1       0.000000      0.000000     10.870028
             3    1       0.000000      0.000000     16.667376
             4    0       0.000000      2.898674      7.971354
             5    0       0.000000      0.000000      7.971354
             6    0       0.000000      2.898674     10.870028
             7    0       2.098982      4.360530      9.433210
             8    0       2.098982      1.436818      6.509497
             9    0       2.098982      1.436818      9.433210
            10    0       2.098982      4.360530      6.509497
            11    0       0.000000      2.898674     13.768702
            12    0       0.000000      0.000000     13.768702
            13    0       0.000000      2.898674     16.667376
            14    0       2.098982      4.360530     15.230558
            15    0       2.098982      1.436818     12.306845
            16    0       2.098982      1.436818     15.230558
            17    0       2.098982      4.360530     12.306845
Feature	Structure Pt133Au116_train_2.cif
END_CFG

BEGIN_CFG
 Size
    17
 Supercell
         4.197965      0.000000      0.000000
         0.000000      5.797348      0.000000
         0.000000      0.000000     23.189392
 AtomData:  id type       cartes_x      cartes_y      cartes_z
             1    2       0.000000      2.898674     18.167376
             2    1       0.000000      0.000000     10.870028
             3    1       0.000000      0.000000     16.667376
             4    0       0.000000      2.898674      7.971354
             5    0       0.000000      0.000000      7.971354
             6    0       0.000000      2.898674     10.870028
             7    0       2.098982      4.360530      9.433210
             8    0       2.098982      1.436818      6.509497
             9    0       2.098982      1.436818      9.433210
            10    0       2.098982      4.360530      6.509497
            11    0       0.000000      2.898674     13.768702
            12    0       0.000000      0.000000     13.768702
            13    0       0.000000      2.898674     16.667376
            14    0       2.098982      4.360530     15.230558
            15    0       2.098982      1.436818     12.306845
            16    0       2.098982      1.436818     15.230558
            17    0       2.098982      4.360530     12.306845
Feature	Structure Pt133Au116_train_3.cif
END_CFG

BEGIN_CFG
 Size
    25
 Supercell
         4.197965      0.000000      0.000000
         0.000000      8.198688      0.000000
         0.000000      0.000000     24.596065
 AtomData:  id type       cartes_x      cartes_y      cartes_z
             1    2       0.000000      5.115328     18.922212
             2    1       0.000000      5.115328      9.223524
             3    1       0.000000      1.015984     13.322868
             4    1       0.000000      5.115328     17.422212
             5    0       0.000000      1.015984      9.223524
             6    0       0.000000      7.165000      7.173852
             7    0       0.000000      3.065656      7.173852
             8    0       2.098982      5.115328      7.191557
             9    0       2.098982      1.015984      7.156147
            10    0       2.098982      7.147295      9.223524
            11    0       2.098982      3.083360      9.223524
            12    0       0.000000      5.115328     13.322868
            13    0       0.000000      3.065656     11.273196
            14    0       0.000000      7.165000     11.273196
            15    0       2.098982      1.015984     11.290901
            16    0       2.098982      5.115328     11.255492
            17    0       2.098982      3.047951     13.322868
            18    0       2.098982      7.182704     13.322868
            19    0       0.000000      1.015984     17.422212
            20    0       0.000000      7.165000     15.372540
            21    0       0.000000      3.065656     15.372540
            22    0       2.098982      5.115328     15.390245
            23    0       2.098982      1.015984     15.354836
            24    0       2.098982      7.147295     17.422212
            25    0       2.098982      3.083360     17.422212
Feature	Structure Pt133Au116_train_4.cif
END_CFG

BEGIN_CFG
 Size
    25
 Supercell
         4.197965      0.000000      0.000000
         0.000000      8.198688      0.000000
         0.000000      0.000000     24.596065
 AtomData:  id type       cartes_x      cartes_y      cartes_z
             1    2       0.000000      1.015984     18.922212
             2    1       0.000000      5.115328      9.223524
             3    1       0.000000      1.015984     13.322868
             4    1       0.000000      5.115328     17.422212
             5    0       0.000000      1.015984      9.223524
             6    0       0.000000      7.165000      7.173852
             7    0       0.000000      3.065656      7.173852
             8    0       2.098982      5.115328      7.191557
             9    0       2.098982      1.015984      7.156147
            10    0       2.098982      7.147295      9.223524
            11    0       2.098982      3.083360      9.223524
            12    0       0.000000      5.115328     13.322868
            13    0       0.000000      3.065656     11.273196
            14    0       0.000000      7.165000     11.273196
            15    0       2.098982      1.015984     11.290901
            16    0       2.098982      5.115328     11.255492
            17    0       2.098982      3.047951     13.322868
            18    0       2.098982      7.182704     13.322868
            19    0       0.000000      1.015984     17.422212
            20    0       0.000000      7.165000     15.372540
            21    0       0.000000      3.065656     15.372540
            22    0       2.098982      5.115328     15.390245
            23    0       2.098982      1.015984     15.354836
            24    0       2.098982      7.147295     17.422212
            25    0       2.098982      3.083360     17.422212
Feature	Structure Pt133Au116_train_5.cif
END_CFG

BEGIN_CFG
 Size
    25
 Supercell
         4.197965      0.000000      0.000000
         0.000000      8.198688      0.000000
         0.000000      0.000000     24.596065
 AtomData:  id type       cartes_x      cartes_y      cartes_z
             1    2       2.098982      7.147295     18.922212
             2    1       0.000000      5.115328      9.223524
             3    1       0.000000      1.015984     13.322868
             4    1       0.000000      5.115328     17.422212
             5    0       0.000000      1.015984      9.223524
             6    0       0.000000      7.165000      7.173852
             7    0       0.000000      3.065656      7.173852
             8    0       2.098982      5.115328      7.191557
             9    0       2.098982      1.015984      7.156147
            10    0       2.098982      7.147295      9.223524
            11    0       2.098982      3.083360      9.223524
            12    0       0.000000      5.115328     13.322868
            13    0       0.000000      3.065656     11.273196
            14    0       0.000000      7.165000     11.273196
            15    0       2.098982      1.015984     11.290901
            16    0       2.098982      5.115328     11.255492
            17    0       2.098982      3.047951     13.322868
            18    0       2.098982      7.182704     13.322868
            19    0       0.000000      1.015984     17.422212
            20    0       0.000000      7.165000     15.372540
            21    0       0.000000      3.065656     15.372540
            22    0       2.098982      5.115328     15.390245
            23    0       2.098982      1.015984     15.354836
            24    0       2.098982      7.147295     17.422212
            25    0       2.098982      3.083360     17.422212
Feature	Structure Pt133Au116_train_6.cif
END_CFG

BEGIN_CFG
 Size
    25
 Supercell
         4.197965      0.000000      0.000000
         0.000000      8.198688      0.000000
         0.000000      0.000000     24.596065
 AtomData:  id type       cartes_x      cartes_y      cartes_z
             1    2       2.098982      3.083360     18.922212
             2    1       0.000000      5.115328      9.223524
             3    1       0.000000      1.015984     13.322868
             4    1       0.000000      5.115328     17.422212
             5    0       0.000000      1.015984      9.223524
             6    0       0.000000      7.165000      7.173852
             7    0       0.000000      3.065656      7.173852
             8    0       2.098982      5.115328      7.191557
             9    0       2.098982      1.015984      7.156147
            10    0       2.098982      7.147295      9.223524
            11    0       2.098982      3.083360      9.223524
            12    0       0.000000      5.115328     13.322868
            13    0       0.000000      3.065656     11.273196
            14    0       0.000000      7.165000     11.273196
            15    0       2.098982      1.015984     11.290901
            16    0       2.098982      5.115328     11.255492
            17    0       2.098982      3.047951     13.322868
            18    0       2.098982      7.182704     13.322868
            19    0       0.000000      1.015984     17.422212
            20    0       0.000000      7.165000     15.372540
            21    0       0.000000      3.065656     15.372540
            22    0       2.098982      5.115328     15.390245
            23    0       2.098982      1.015984     15.354836
            24    0       2.098982      7.147295     17.422212
            25    0       2.098982      3.083360     17.422212
Feature	Structure Pt133Au116_train_7.cif
END_CFG

BEGIN_CFG
 Size
    25
 Supercell
         5.797348      0.000000      0.000000
         0.000000      5.797348      0.000000
         0.000000      0.000000     25.187790
 AtomData:  id type       cartes_x      cartes_y      cartes_z
             1    2       0.000000      0.000000     19.341351
             2    1       0.000000      0.000000      9.445421
             3    1       0.000000      0.000000     13.643386
             4    1       0.000000      0.000000     17.841351
             5    0       2.898674      2.898674      9.445421
             6    0       2.898674      0.000000      9.445421
             7    0       0.000000      2.898674      9.445421
             8    0       1.436818      1.436818      7.346439
             9    0       4.360530      4.360530      7.346439
            10    0       1.436818      4.360530      7.346439
            11    0       4.360530      1.436818      7.346439
            12    0       2.898674      2.898674     13.643386
            13    0       2.898674      0.000000     13.643386
            14    0       0.000000      2.898674     13.643386
            15    0       1.436818      1.436818     11.544404
            16    0       4.360530      4.360530     11.544404
            17    0       1.436818      4.360530     11.544404
            18    0       4.360530      1.436818     11.544404
            19    0       2.898674      2.898674     17.841351
            20    0       2.898674      0.000000     17.841351
            21    0       0.000000      2.898674     17.841351
            22    0       1.436818      1.436818     15.742369
            23    0       4.360530      4.360530     15.742369
            24    0       1.436818      4.360530     15.742369
            25    0       4.360530      1.436818     15.742369
Feature	Structure Pt133Au116_train_8.cif
END_CFG

BEGIN_CFG
 Size
    25
 Supercell
         5.797348      0.000000      0.000000
         0.000000      5.797348      0.000000
         0.000000      0.000000     25.187790
 AtomData:  id type       cartes_x      cartes_y      cartes_z
             1    2       2.898674      2.898674     19.341351
             2    1       0.000000      0.000000      9.445421
             3    1       0.000000      0.000000     13.643386
             4    1       0.000000      0.000000     17.841351
             5    0       2.898674      2.898674      9.445421
             6    0       2.898674      0.000000      9.445421
             7    0       0.000000      2.898674      9.445421
             8    0       1.436818      1.436818      7.346439
             9    0       4.360530      4.360530      7.346439
            10    0       1.436818      4.360530      7.346439
            11    0       4.360530      1.436818      7.346439
            12    0       2.898674      2.898674     13.643386
            13    0       2.898674      0.000000     13.643386
            14    0       0.000000      2.898674     13.643386
            15    0       1.436818      1.436818     11.544404
            16    0       4.360530      4.360530     11.544404
            17    0       1.436818      4.360530     11.544404
            18    0       4.360530      1.436818     11.544404
            19    0       2.898674      2.898674     17.841351
            20    0       2.898674      0.000000     17.841351
            21    0       0.000000      2.898674     17.841351
            22    0       1.436818      1.436818     15.742369
            23    0       4.360530      4.360530     15.742369
            24    0       1.436818      4.360530     15.742369
            25    0       4.360530      1.436818     15.742369
Feature	Structure Pt133Au116_train_9.cif
END_CFG

BEGIN_CFG
 Size
    25
 Supercell
         5.797348      0.000000      0.000000
         0.000000      5.797348      0.000000
         0.000000      0.000000     25.187790
 AtomData:  id type       cartes_x      cartes_y      cartes_z
             1    2       2.898674      0.000000     19.341351
             2    1       0.000000      0.000000      9.445421
             3    1       0.000000      0.000000     13.643386
             4    1       0.000000      0.000000     17.841351
             5    0       2.898674      2.898674      9.445421
             6    0       2.898674      0.000000      9.445421
             7    0       0.000000      2.898674      9.445421
             8    0       1.436818      1.436818      7.346439
             9    0       4.360530      4.360530      7.346439
            10    0       1.436818      4.360530      7.346439
            11    0       4.360530      1.436818      7.346439
            12    0       2.898674      2.898674     13.643386
            13    0       2.898674      0.000000     13.643386
            14    0       0.000000      2.898674     13.643386
            15    0       1.436818      1.436818     11.544404
            16    0       4.360530      4.360530     11.544404
            17    0       1.436818      4.360530     11.544404
            18    0       4.360530      1.436818     11.544404
            19    0       2.898674      2.898674     17.841351
            20    0       2.898674      0.000000     17.841351
            21    0       0.000000      2.898674     17.841351
            22    0       1.436818      1.436818     15.742369
            23    0       4.360530      4.360530     15.742369
            24    0       1.436818      4.360530     15.742369
            25    0       4.360530      1.436818     15.742369
Feature	Structure Pt133Au116_train_10.cif
END_CFG

BEGIN_CFG
 Size
    25
 Supercell
         5.797348      0.000000      0.000000
         0.000000      5.797348      0.000000
         0.000000      0.000000     25.187790
 AtomData:  id type       cartes_x      cartes_y      cartes_z
             1    2       0.000000      2.898674     19.341351
             2    1       0.000000      0.000000      9.445421
             3    1       0.000000      0.000000     13.643386
             4    1       0.000000      0.000000     17.841351
             5    0       2.898674      2.898674      9.445421
             6    0       2.898674      0.000000      9.445421
             7    0       0.000000      2.898674      9.445421
             8    0       1.436818      1.436818      7.346439
             9    0       4.360530      4.360530      7.346439
            10    0       1.436818      4.360530      7.346439
            11    0       4.360530      1.436818      7.346439
            12    0       2.898674      2.898674     13.643386
            13    0       2.898674      0.000000     13.643386
            14    0       0.000000      2.898674     13.643386
            15    0       1.436818      1.436818     11.544404
            16    0       4.360530      4.360530     11.544404
            17    0       1.436818      4.360530     11.544404
            18    0       4.360530      1.436818     11.544404
            19    0       2.898674      2.898674     17.841351
            20    0       2.898674      0.000000     17.841351
            21    0       0.000000      2.898674     17.841351
            22    0       1.436818      1.436818     15.742369
            23    0       4.360530      4.360530     15.742369
            24    0       1.436818      4.360530     15.742369
            25    0       4.360530      1.436818     15.742369
Feature	Structure Pt133Au116_train_11.cif
END_CFG

BEGIN_CFG
 Size
    25
 Supercell
         5.797348      0.000000      0.000000
         0.000000      7.155866     -0.160402
         0.000000      0.000000     20.405968
 AtomData:  id type       cartes_x      cartes_y      cartes_z
             1    2       0.000000      0.300737     16.372611
             2    1       0.000000      5.071314      7.963687
             3    1       0.000000      2.686026     11.418149
             4    1       0.000000      0.300737     14.872611
             5    0       2.898674      2.686026      6.316656
             6    0       2.898674      5.071314      7.963687
             7    0       0.000000      2.686026      6.316656
             8    0       1.436818      0.290435      7.213259
             9    0       4.360530      5.081616      5.420054
            10    0       1.436818      5.081616      5.420054
            11    0       4.360530      0.290435      7.213259
            12    0       2.898674      0.300737      9.771118
            13    0       2.898674      2.686026     11.418149
            14    0       0.000000      0.300737      9.771118
            15    0       1.436818      5.061012     10.507320
            16    0       4.360530      2.696327      8.874516
            17    0       1.436818      2.696327      8.874516
            18    0       4.360530      5.061012     10.507320
            19    0       2.898674      5.071314     13.065179
            20    0       2.898674      0.300737     14.872611
            21    0       0.000000      5.071314     13.065179
            22    0       1.436818      2.675723     13.961782
            23    0       4.360530      0.311038     12.328978
            24    0       1.436818      0.311038     12.328978
            25    0       4.360530      2.675723     13.961782
Feature	Structure Pt133Au116_train_12.cif
END_CFG

BEGIN_CFG
 Size
    25
 Supercell
         5.797348      0.000000      0.000000
         0.000000      7.155866     -0.160402
         0.000000      0.000000     20.405968
 AtomData:  id type       cartes_x      cartes_y      cartes_z
             1    2       2.898674      0.300737     16.372611
             2    1       0.000000      5.071314      7.963687
             3    1       0.000000      2.686026     11.418149
             4    1       0.000000      0.300737     14.872611
             5    0       2.898674      2.686026      6.316656
             6    0       2.898674      5.071314      7.963687
             7    0       0.000000      2.686026      6.316656
             8    0       1.436818      0.290435      7.213259
             9    0       4.360530      5.081616      5.420054
            10    0       1.436818      5.081616      5.420054
            11    0       4.360530      0.290435      7.213259
            12    0       2.898674      0.300737      9.771118
            13    0       2.898674      2.686026     11.418149
            14    0       0.000000      0.300737      9.771118
            15    0       1.436818      5.061012     10.507320
            16    0       4.360530      2.696327      8.874516
            17    0       1.436818      2.696327      8.874516
            18    0       4.360530      5.061012     10.507320
            19    0       2.898674      5.071314     13.065179
            20    0       2.898674      0.300737     14.872611
            21    0       0.000000      5.071314     13.065179
            22    0       1.436818      2.675723     13.961782
            23    0       4.360530      0.311038     12.328978
            24    0       1.436818      0.311038     12.328978
            25    0       4.360530      2.675723     13.961782
Feature	Structure Pt133Au116_train_13.cif
END_CFG

BEGIN_CFG
 Size
    25
 Supercell
         5.797348      0.000000      0.000000
         0.000000      7.155866     -0.160402
         0.000000      0.000000     20.405968
 AtomData:  id type       cartes_x      cartes_y      cartes_z
             1    2       0.000000      0.300736     16.372611
             2    1       0.000000      5.071314      7.963687
             3    1       0.000000      2.686025     11.418149
             4    1       0.000000      0.300736     14.872611
             5    0       2.898674      2.686025      6.316657
             6    0       0.000000      2.686025      6.316657
             7    0       2.898674      5.071314      7.963687
             8    0       4.360530      5.081616      5.420054
             9    0       1.436818      0.290435      7.213259
            10    0       1.436818      5.081616      5.420054
            11    0       4.360530      0.290435      7.213259
            12    0       2.898674      0.300736      9.771119
            13    0       0.000000      0.300736      9.771119
            14    0       2.898674      2.686025     11.418149
            15    0       4.360530      2.696327      8.874516
            16    0       1.436818      5.061013     10.507319
            17    0       1.436818      2.696327      8.874516
            18    0       4.360530      5.061013     10.507319
            19    0       2.898674      5.071314     13.065179
            20    0       0.000000      5.071314     13.065179
            21    0       2.898674      0.300736     14.872611
            22    0       4.360530      0.311038     12.328978
            23    0       1.436818      2.675724     13.961781
            24    0       1.436818      0.311038     12.328978
            25    0       4.360530      2.675724     13.961781
Feature	Structure Pt133Au116_train_14.cif
END_CFG

BEGIN_CFG
 Size
    25
 Supercell
         5.797348      0.000000      0.000000
         0.000000      7.155866     -0.160402
         0.000000      0.000000     20.405968
 AtomData:  id type       cartes_x      cartes_y      cartes_z
             1    2       2.898674      0.300736     16.372611
             2    1       0.000000      5.071314      7.963687
             3    1       0.000000      2.686025     11.418149
             4    1       0.000000      0.300736     14.872611
             5    0       2.898674      2.686025      6.316657
             6    0       0.000000      2.686025      6.316657
             7    0       2.898674      5.071314      7.963687
             8    0       4.360530      5.081616      5.420054
             9    0       1.436818      0.290435      7.213259
            10    0       1.436818      5.081616      5.420054
            11    0       4.360530      0.290435      7.213259
            12    0       2.898674      0.300736      9.771119
            13    0       0.000000      0.300736      9.771119
            14    0       2.898674      2.686025     11.418149
            15    0       4.360530      2.696327      8.874516
            16    0       1.436818      5.061013     10.507319
            17    0       1.436818      2.696327      8.874516
            18    0       4.360530      5.061013     10.507319
            19    0       2.898674      5.071314     13.065179
            20    0       0.000000      5.071314     13.065179
            21    0       2.898674      0.300736     14.872611
            22    0       4.360530      0.311038     12.328978
            23    0       1.436818      2.675724     13.961781
            24    0       1.436818      0.311038     12.328978
            25    0       4.360530      2.675724     13.961781
Feature	Structure Pt133Au116_train_15.cif
END_CFG

BEGIN_CFG
 Size
    33
 Supercell
         7.156305      0.000000     -0.139461
         2.459853      6.720255     -0.139461
         0.000000      0.000000     23.469992
 AtomData:  id type       cartes_x      cartes_y      cartes_z
             1    2       0.606202      0.423644     18.351473
             2    1       7.818320      5.463835      7.841034
             3    1       5.414281      3.783772     10.844514
             4    1       3.010241      2.103708     13.847994
             5    1       0.606202      0.423644     16.851473
             6    0       3.010241      2.103708      7.980496
             7    0       5.442188      6.303867      6.409025
             8    0       7.790414      2.943740      6.409025
             9    0       0.595819      0.416388      8.037857
            10    0       5.424663      3.791027      7.923135
            11    0       3.028006      4.638315      6.478756
            12    0       5.396515      1.249164      6.478756
            13    0       0.606202      0.423644     10.983975
            14    0       3.038148      4.623803      9.412505
            15    0       5.386374      1.263676      9.412505
            16    0       7.807937      5.456579     10.762415
            17    0       3.020624      2.110964     10.926614
            18    0       7.780272      2.958252      9.342775
            19    0       5.452329      6.289355      9.342775
            20    0       7.818320      5.463835     13.708532
            21    0       7.790414      2.943740     12.276523
            22    0       5.442188      6.303867     12.276523
            23    0       5.403898      3.776515     13.765894
            24    0       0.616584      0.430900     13.930094
            25    0       5.376232      1.278188     12.346254
            26    0       3.048289      4.609291     12.346254
            27    0       5.414281      3.783772     16.712012
            28    0       5.386374      1.263676     15.280003
            29    0       3.038148      4.623803     15.280003
            30    0       2.999858      2.096452     16.769374
            31    0       7.828703      5.471091     16.654651